<?xml version="1.0" encoding="UTF-8"?>

<!-- generated on 2018年06月13日 星期三 10时08分18秒 by SUMO gui Version 0.30.0
<?xml version="1.0" encoding="UTF-8"?>

<configuration xmlns:xsi="http://www.w3.org/2001/XMLSchema-instance" xsi:noNamespaceSchemaLocation="http://sumo.dlr.de/xsd/sumoConfiguration.xsd">

    <input>
        <net-file value="G6_badaling.net.xml"/>
        <route-files value="G6_badaling.rou.xml"/>
        <additional-files value="G6_badaling.poly.xml"/>
    </input>

    <output>
        <netstate-dump value="G6_badaling_dump_output.xml"/>
        <fcd-output value="G6_badaling_fcd_output.xml"/>
    </output>

    <time>
        <begin value="0"/>
        <end value="600"/>
    </time>

</configuration>
-->

<fcd-export xmlns:xsi="http://www.w3.org/2001/XMLSchema-instance" xsi:noNamespaceSchemaLocation="http://sumo.dlr.de/xsd/fcd_file.xsd">
    <timestep time="0.00">
        <vehicle id="3.0" x="2673.65" y="468.07" angle="200.84" type="car2" speed="11.80" pos="5.10" lane="86113446#1_0" slope="0.00"/>
    </timestep>
    <timestep time="1.00">
        <vehicle id="3.0" x="2669.10" y="456.13" angle="200.84" type="car2" speed="12.78" pos="17.88" lane="86113446#1_0" slope="0.00"/>
    </timestep>
    <timestep time="2.00">
        <vehicle id="1.0" x="3.29" y="4.23" angle="55.77" type="car2" speed="11.33" pos="5.10" lane="143380536#0_1" slope="0.00"/>
        <vehicle id="3.0" x="2664.33" y="443.60" angle="200.84" type="car2" speed="13.40" pos="31.28" lane="86113446#1_0" slope="0.00"/>
    </timestep>
    <timestep time="3.00">
        <vehicle id="1.0" x="13.37" y="11.09" angle="55.77" type="car2" speed="12.19" pos="17.29" lane="143380536#0_1" slope="0.00"/>
        <vehicle id="3.0" x="2659.22" y="430.17" angle="200.84" type="car2" speed="14.37" pos="45.66" lane="86113446#1_0" slope="0.00"/>
    </timestep>
    <timestep time="4.00">
        <vehicle id="1.0" x="24.27" y="18.50" angle="55.77" type="car2" speed="13.17" pos="30.46" lane="143380536#0_1" slope="0.00"/>
        <vehicle id="3.0" x="2653.84" y="416.04" angle="200.84" type="car2" speed="15.12" pos="60.77" lane="86113446#1_0" slope="0.00"/>
    </timestep>
    <timestep time="5.00">
        <vehicle id="1.0" x="35.65" y="26.24" angle="55.77" type="car2" speed="13.76" pos="44.22" lane="143380536#0_1" slope="0.00"/>
        <vehicle id="3.0" x="2648.26" y="401.39" angle="200.84" type="car2" speed="15.67" pos="76.45" lane="86113446#1_0" slope="0.00"/>
    </timestep>
    <timestep time="6.00">
        <vehicle id="1.0" x="47.84" y="34.54" angle="55.77" type="car2" speed="14.74" pos="58.96" lane="143380536#0_1" slope="0.00"/>
        <vehicle id="3.0" x="2642.39" y="385.95" angle="200.84" type="car2" speed="16.52" pos="92.97" lane="86113446#1_0" slope="0.00"/>
    </timestep>
    <timestep time="7.00">
        <vehicle id="1.0" x="60.85" y="43.39" angle="55.77" type="car2" speed="15.73" pos="74.69" lane="143380536#0_1" slope="0.00"/>
        <vehicle id="3.0" x="2636.27" y="369.89" angle="200.84" type="car2" speed="17.18" pos="110.15" lane="86113446#1_0" slope="0.00"/>
    </timestep>
    <timestep time="8.00">
        <vehicle id="1.0" x="76.32" y="49.92" angle="55.78" type="car2" speed="16.52" pos="91.21" lane="143380536#0_0" slope="0.00"/>
        <vehicle id="1.1" x="3.29" y="4.23" angle="55.77" type="car2" speed="4.83" pos="5.10" lane="143380536#0_1" slope="0.00"/>
        <vehicle id="3.0" x="2629.98" y="353.35" angle="200.84" type="car2" speed="17.70" pos="127.85" lane="86113446#1_0" slope="0.00"/>
    </timestep>
    <timestep time="9.00">
        <vehicle id="1.0" x="90.46" y="59.54" angle="55.78" type="car2" speed="17.12" pos="108.33" lane="143380536#0_0" slope="0.00"/>
        <vehicle id="1.1" x="8.07" y="7.48" angle="55.77" type="car2" speed="5.78" pos="10.88" lane="143380536#0_1" slope="0.00"/>
        <vehicle id="3.0" x="2623.44" y="336.18" angle="200.84" type="car2" speed="18.36" pos="146.22" lane="86113446#1_0" slope="0.00"/>
    </timestep>
    <timestep time="10.00">
        <vehicle id="1.0" x="105.05" y="69.46" angle="55.78" type="car2" speed="17.65" pos="125.97" lane="143380536#0_0" slope="0.00"/>
        <vehicle id="1.1" x="13.29" y="11.03" angle="55.77" type="car2" speed="6.30" pos="17.19" lane="143380536#0_1" slope="0.00"/>
        <vehicle id="3.0" x="2616.61" y="318.23" angle="200.84" type="car2" speed="19.21" pos="165.43" lane="86113446#1_0" slope="0.00"/>
    </timestep>
    <timestep time="11.00">
        <vehicle id="1.0" x="120.07" y="79.67" angle="55.78" type="car2" speed="18.17" pos="144.14" lane="143380536#0_0" slope="0.00"/>
        <vehicle id="1.1" x="19.25" y="15.09" angle="55.77" type="car2" speed="7.21" pos="24.40" lane="143380536#0_1" slope="0.00"/>
        <vehicle id="1.2" x="3.29" y="4.23" angle="55.77" type="car2" speed="9.34" pos="5.10" lane="143380536#0_1" slope="0.00"/>
        <vehicle id="3.0" x="2610.17" y="299.65" angle="196.69" type="car2" speed="19.68" pos="185.11" lane="86113446#1_0" slope="0.00"/>
    </timestep>
    <timestep time="12.00">
        <vehicle id="1.0" x="135.50" y="90.17" angle="55.78" type="car2" speed="18.67" pos="162.82" lane="143380536#0_0" slope="0.00"/>
        <vehicle id="1.1" x="25.91" y="19.62" angle="55.77" type="car2" speed="8.05" pos="32.45" lane="143380536#0_1" slope="0.00"/>
        <vehicle id="1.2" x="10.87" y="9.39" angle="55.77" type="car2" speed="9.17" pos="14.27" lane="143380536#0_1" slope="0.00"/>
        <vehicle id="2.0" x="5.15" y="1.51" angle="55.78" type="car2" speed="1.60" pos="5.10" lane="143380536#0_0" slope="0.00"/>
        <vehicle id="3.0" x="2604.44" y="280.53" angle="196.69" type="car2" speed="19.96" pos="205.06" lane="86113446#1_0" slope="0.00"/>
    </timestep>
    <timestep time="13.00">
        <vehicle id="1.0" x="151.72" y="100.63" angle="59.89" type="car2" speed="19.31" pos="182.13" lane="143380536#0_0" slope="0.00"/>
        <vehicle id="1.1" x="33.28" y="24.63" angle="55.77" type="car2" speed="8.91" pos="41.36" lane="143380536#0_1" slope="0.00"/>
        <vehicle id="1.2" x="18.43" y="14.53" angle="55.77" type="car2" speed="9.14" pos="23.41" lane="143380536#0_1" slope="0.00"/>
        <vehicle id="2.0" x="7.15" y="2.87" angle="55.78" type="car2" speed="2.42" pos="7.52" lane="143380536#0_0" slope="0.00"/>
        <vehicle id="3.0" x="2598.79" y="261.70" angle="196.69" type="car2" speed="19.66" pos="224.72" lane="86113446#1_0" slope="0.00"/>
    </timestep>
    <timestep time="14.00">
        <vehicle id="1.0" x="168.79" y="110.53" angle="59.89" type="car2" speed="19.74" pos="201.88" lane="143380536#0_0" slope="0.00"/>
        <vehicle id="1.1" x="43.07" y="27.30" angle="55.78" type="car2" speed="9.62" pos="50.98" lane="143380536#0_0" slope="0.00"/>
        <vehicle id="1.2" x="26.08" y="19.73" angle="55.77" type="car2" speed="9.25" pos="32.65" lane="143380536#0_1" slope="0.00"/>
        <vehicle id="2.0" x="9.64" y="4.56" angle="55.78" type="car2" speed="3.01" pos="10.54" lane="143380536#0_0" slope="0.00"/>
        <vehicle id="2.1" x="3.29" y="4.23" angle="55.77" type="car2" speed="12.85" pos="5.10" lane="143380536#0_1" slope="0.00"/>
        <vehicle id="3.0" x="2593.10" y="242.71" angle="196.69" type="car2" speed="19.82" pos="244.54" lane="86113446#1_0" slope="0.00"/>
    </timestep>
    <timestep time="15.00">
        <vehicle id="1.0" x="185.81" y="120.41" angle="59.89" type="car2" speed="19.69" pos="221.56" lane="143380536#0_0" slope="0.00"/>
        <vehicle id="1.1" x="51.46" y="33.01" angle="55.78" type="car2" speed="10.15" pos="61.13" lane="143380536#0_0" slope="0.00"/>
        <vehicle id="1.2" x="34.38" y="25.38" angle="55.77" type="car2" speed="10.03" pos="42.69" lane="143380536#0_1" slope="0.00"/>
        <vehicle id="2.0" x="12.75" y="6.68" angle="55.78" type="car2" speed="3.76" pos="14.30" lane="143380536#0_0" slope="0.00"/>
        <vehicle id="2.1" x="13.62" y="11.26" angle="55.77" type="car2" speed="12.49" pos="17.59" lane="143380536#0_1" slope="0.00"/>
        <vehicle id="3.0" x="2585.21" y="224.76" angle="211.69" type="car2" speed="19.77" pos="264.31" lane="86113446#1_0" slope="0.00"/>
    </timestep>
    <timestep time="16.00">
        <vehicle id="1.0" x="202.98" y="130.36" angle="59.89" type="car2" speed="19.85" pos="241.42" lane="143380536#0_0" slope="0.00"/>
        <vehicle id="1.1" x="60.51" y="39.16" angle="55.78" type="car2" speed="10.95" pos="72.08" lane="143380536#0_0" slope="0.00"/>
        <vehicle id="1.2" x="43.22" y="31.39" angle="55.77" type="car2" speed="10.68" pos="53.37" lane="143380536#0_1" slope="0.00"/>
        <vehicle id="2.0" x="16.55" y="9.26" angle="55.78" type="car2" speed="4.59" pos="18.89" lane="143380536#0_0" slope="0.00"/>
        <vehicle id="2.1" x="23.96" y="18.29" angle="55.77" type="car2" speed="12.50" pos="30.10" lane="143380536#0_1" slope="0.00"/>
        <vehicle id="3.0" x="2574.83" y="207.94" angle="211.69" type="car2" speed="19.77" pos="284.08" lane="86113446#1_0" slope="0.00"/>
    </timestep>
    <timestep time="17.00">
        <vehicle id="1.0" x="219.96" y="140.21" angle="59.89" type="car2" speed="19.64" pos="261.06" lane="143380536#0_0" slope="0.00"/>
        <vehicle id="1.1" x="70.33" y="45.85" angle="55.78" type="car2" speed="11.89" pos="83.97" lane="143380536#0_0" slope="0.00"/>
        <vehicle id="1.2" x="52.82" y="37.93" angle="55.77" type="car2" speed="11.61" pos="64.98" lane="143380536#0_1" slope="0.00"/>
        <vehicle id="2.0" x="20.87" y="12.21" angle="55.78" type="car2" speed="5.24" pos="24.13" lane="143380536#0_0" slope="0.00"/>
        <vehicle id="2.1" x="33.84" y="25.01" angle="55.77" type="car2" speed="11.94" pos="42.03" lane="143380536#0_1" slope="0.00"/>
        <vehicle id="2.2" x="3.29" y="4.23" angle="55.77" type="car2" speed="16.70" pos="5.10" lane="143380536#0_1" slope="0.00"/>
        <vehicle id="3.0" x="2564.42" y="191.08" angle="211.69" type="car2" speed="19.81" pos="303.89" lane="86113446#1_0" slope="0.00"/>
    </timestep>
    <timestep time="18.00">
        <vehicle id="1.0" x="236.89" y="150.03" angle="59.89" type="car2" speed="19.58" pos="280.64" lane="143380536#0_0" slope="0.00"/>
        <vehicle id="1.1" x="80.92" y="53.05" angle="55.78" type="car2" speed="12.81" pos="96.78" lane="143380536#0_0" slope="0.00"/>
        <vehicle id="1.2" x="63.11" y="44.93" angle="55.77" type="car2" speed="12.44" pos="77.42" lane="143380536#0_1" slope="0.00"/>
        <vehicle id="1.3" x="3.29" y="4.23" angle="55.77" type="car2" speed="11.47" pos="5.10" lane="143380536#0_1" slope="0.00"/>
        <vehicle id="2.0" x="25.66" y="15.46" angle="55.78" type="car2" speed="5.78" pos="29.92" lane="143380536#0_0" slope="0.00"/>
        <vehicle id="2.1" x="44.23" y="32.08" angle="55.77" type="car2" speed="12.56" pos="54.59" lane="143380536#0_1" slope="0.00"/>
        <vehicle id="2.2" x="16.93" y="13.51" angle="55.77" type="car2" speed="16.49" pos="21.59" lane="143380536#0_1" slope="0.00"/>
        <vehicle id="3.0" x="2550.07" y="178.36" angle="239.07" type="car2" speed="19.71" pos="323.60" lane="86113446#1_0" slope="0.00"/>
    </timestep>
    <timestep time="19.00">
        <vehicle id="1.0" x="254.14" y="160.04" angle="59.89" type="car2" speed="19.95" pos="300.58" lane="143380536#0_0" slope="0.00"/>
        <vehicle id="1.1" x="91.98" y="60.57" angle="55.78" type="car2" speed="13.38" pos="110.16" lane="143380536#0_0" slope="0.00"/>
        <vehicle id="1.2" x="73.89" y="52.26" angle="55.77" type="car2" speed="13.03" pos="90.46" lane="143380536#0_1" slope="0.00"/>
        <vehicle id="1.3" x="13.59" y="11.24" angle="55.77" type="car2" speed="12.46" pos="17.56" lane="143380536#0_1" slope="0.00"/>
        <vehicle id="2.0" x="31.00" y="19.09" angle="55.78" type="car2" speed="6.46" pos="36.38" lane="143380536#0_0" slope="0.00"/>
        <vehicle id="2.1" x="54.93" y="39.36" angle="55.77" type="car2" speed="12.93" pos="67.53" lane="143380536#0_1" slope="0.00"/>
        <vehicle id="2.2" x="29.96" y="22.37" angle="55.77" type="car2" speed="15.76" pos="37.34" lane="143380536#0_1" slope="0.00"/>
        <vehicle id="3.0" x="2533.34" y="168.33" angle="239.07" type="car2" speed="19.51" pos="343.11" lane="86113446#1_0" slope="0.00"/>
    </timestep>
    <timestep time="20.00">
        <vehicle id="1.0" x="271.36" y="170.03" angle="59.89" type="car2" speed="19.92" pos="320.50" lane="143380536#0_0" slope="0.00"/>
        <vehicle id="1.1" x="103.73" y="68.56" angle="55.78" type="car2" speed="14.21" pos="124.37" lane="143380536#0_0" slope="0.00"/>
        <vehicle id="1.2" x="85.30" y="60.02" angle="55.77" type="car2" speed="13.80" pos="104.25" lane="143380536#0_1" slope="0.00"/>
        <vehicle id="1.3" x="24.46" y="18.63" angle="55.77" type="car2" speed="13.13" pos="30.69" lane="143380536#0_1" slope="0.00"/>
        <vehicle id="1.4" x="5.15" y="1.51" angle="55.78" type="car2" speed="2.29" pos="5.10" lane="143380536#0_0" slope="0.00"/>
        <vehicle id="2.0" x="36.84" y="23.06" angle="55.78" type="car2" speed="7.07" pos="43.44" lane="143380536#0_0" slope="0.00"/>
        <vehicle id="2.1" x="66.16" y="47.00" angle="55.77" type="car2" speed="13.58" pos="81.10" lane="143380536#0_1" slope="0.00"/>
        <vehicle id="2.2" x="42.79" y="31.10" angle="55.77" type="car2" speed="15.51" pos="52.85" lane="143380536#0_1" slope="0.00"/>
        <vehicle id="3.0" x="2515.73" y="160.76" angle="263.11" type="car2" speed="19.54" pos="362.65" lane="86113446#1_0" slope="0.00"/>
    </timestep>
    <timestep time="21.00">
        <vehicle id="1.0" x="288.29" y="179.84" angle="59.89" type="car2" speed="19.57" pos="340.08" lane="143380536#0_0" slope="0.00"/>
        <vehicle id="1.1" x="115.96" y="76.88" angle="55.78" type="car2" speed="14.80" pos="139.17" lane="143380536#0_0" slope="0.00"/>
        <vehicle id="1.2" x="97.34" y="68.21" angle="55.77" type="car2" speed="14.55" pos="118.80" lane="143380536#0_1" slope="0.00"/>
        <vehicle id="1.3" x="35.95" y="26.45" angle="55.77" type="car2" speed="13.90" pos="44.59" lane="143380536#0_1" slope="0.00"/>
        <vehicle id="1.4" x="7.45" y="3.07" angle="55.78" type="car2" speed="2.79" pos="7.89" lane="143380536#0_0" slope="0.00"/>
        <vehicle id="2.0" x="43.34" y="27.49" angle="55.78" type="car2" speed="7.87" pos="51.31" lane="143380536#0_0" slope="0.00"/>
        <vehicle id="2.1" x="77.56" y="54.76" angle="55.77" type="car2" speed="13.79" pos="94.89" lane="143380536#0_1" slope="0.00"/>
        <vehicle id="2.2" x="55.18" y="39.53" angle="55.77" type="car2" speed="14.98" pos="67.83" lane="143380536#0_1" slope="0.00"/>
        <vehicle id="3.0" x="2496.29" y="158.41" angle="263.11" type="car2" speed="19.58" pos="382.23" lane="86113446#1_0" slope="0.00"/>
    </timestep>
    <timestep time="22.00">
        <vehicle id="1.0" x="305.39" y="189.76" angle="59.89" type="car2" speed="19.78" pos="359.85" lane="143380536#0_0" slope="0.00"/>
        <vehicle id="1.1" x="128.88" y="85.67" angle="55.78" type="car2" speed="15.64" pos="154.81" lane="143380536#0_0" slope="0.00"/>
        <vehicle id="1.2" x="110.05" y="76.86" angle="55.77" type="car2" speed="15.37" pos="134.17" lane="143380536#0_1" slope="0.00"/>
        <vehicle id="1.3" x="48.04" y="34.67" angle="55.77" type="car2" speed="14.61" pos="59.20" lane="143380536#0_1" slope="0.00"/>
        <vehicle id="1.4" x="10.40" y="5.08" angle="55.78" type="car2" speed="3.57" pos="11.45" lane="143380536#0_0" slope="0.00"/>
        <vehicle id="2.0" x="50.37" y="32.27" angle="55.78" type="car2" speed="8.51" pos="59.82" lane="143380536#0_0" slope="0.00"/>
        <vehicle id="2.1" x="89.46" y="62.85" angle="55.77" type="car2" speed="14.39" pos="109.28" lane="143380536#0_1" slope="0.00"/>
        <vehicle id="2.2" x="67.71" y="48.06" angle="55.77" type="car2" speed="15.15" pos="82.99" lane="143380536#0_1" slope="0.00"/>
        <vehicle id="3.0" x="2476.60" y="159.52" angle="280.12" type="car2" speed="19.94" pos="402.16" lane="86113446#1_0" slope="0.00"/>
    </timestep>
    <timestep time="23.00">
        <vehicle id="1.0" x="322.58" y="199.73" angle="59.89" type="car2" speed="19.89" pos="379.74" lane="143380536#0_0" slope="0.00"/>
        <vehicle id="1.1" x="142.54" y="94.96" angle="55.78" type="car2" speed="16.52" pos="171.33" lane="143380536#0_0" slope="0.00"/>
        <vehicle id="1.2" x="123.46" y="85.98" angle="55.77" type="car2" speed="16.21" pos="150.38" lane="143380536#0_1" slope="0.00"/>
        <vehicle id="1.3" x="60.61" y="43.22" angle="55.77" type="car2" speed="15.20" pos="74.40" lane="143380536#0_1" slope="0.00"/>
        <vehicle id="1.4" x="13.79" y="7.39" angle="55.78" type="car2" speed="4.11" pos="15.56" lane="143380536#0_0" slope="0.00"/>
        <vehicle id="1.5" x="3.29" y="4.23" angle="55.77" type="car2" speed="11.37" pos="5.10" lane="143380536#0_1" slope="0.00"/>
        <vehicle id="2.0" x="58.15" y="37.56" angle="55.78" type="car2" speed="9.41" pos="69.23" lane="143380536#0_0" slope="0.00"/>
        <vehicle id="2.1" x="102.09" y="71.44" angle="55.77" type="car2" speed="15.26" pos="124.55" lane="143380536#0_1" slope="0.00"/>
        <vehicle id="2.2" x="80.18" y="56.53" angle="55.77" type="car2" speed="15.06" pos="98.05" lane="143380536#0_1" slope="0.00"/>
        <vehicle id="3.0" x="2458.96" y="166.84" angle="314.05" type="car2" speed="19.90" pos="422.07" lane="86113446#1_0" slope="0.00"/>
    </timestep>
    <timestep time="24.00">
        <vehicle id="1.0" x="339.53" y="209.57" angle="59.89" type="car2" speed="19.60" pos="399.34" lane="143380536#0_0" slope="0.00"/>
        <vehicle id="1.1" x="157.36" y="103.90" angle="59.89" type="car2" speed="17.32" pos="188.65" lane="143380536#0_0" slope="0.00"/>
        <vehicle id="1.2" x="137.68" y="95.65" angle="55.77" type="car2" speed="17.19" pos="167.57" lane="143380536#0_1" slope="0.00"/>
        <vehicle id="1.3" x="73.02" y="51.67" angle="55.77" type="car2" speed="15.00" pos="89.40" lane="143380536#0_1" slope="0.00"/>
        <vehicle id="1.4" x="17.78" y="10.10" angle="55.78" type="car2" speed="4.82" pos="20.38" lane="143380536#0_0" slope="0.00"/>
        <vehicle id="1.5" x="13.47" y="11.16" angle="55.77" type="car2" speed="12.31" pos="17.41" lane="143380536#0_1" slope="0.00"/>
        <vehicle id="1.6" x="3.29" y="4.23" angle="55.77" type="car2" speed="9.81" pos="5.10" lane="143380536#0_1" slope="0.00"/>
        <vehicle id="2.0" x="66.72" y="43.39" angle="55.78" type="car2" speed="10.37" pos="79.60" lane="143380536#0_0" slope="0.00"/>
        <vehicle id="2.1" x="115.23" y="80.38" angle="55.77" type="car2" speed="15.89" pos="140.43" lane="143380536#0_1" slope="0.00"/>
        <vehicle id="2.2" x="93.16" y="65.36" angle="55.77" type="car2" speed="15.69" pos="113.75" lane="143380536#0_1" slope="0.00"/>
        <vehicle id="3.0" x="2448.91" y="183.51" angle="335.76" type="car2" speed="19.77" pos="441.84" lane="86113446#1_0" slope="0.00"/>
    </timestep>
    <timestep time="25.00">
        <vehicle id="1.0" x="356.51" y="219.41" angle="59.89" type="car2" speed="19.63" pos="418.97" lane="143380536#0_0" slope="0.00"/>
        <vehicle id="1.1" x="172.94" y="112.94" angle="59.89" type="car2" speed="18.02" pos="206.67" lane="143380536#0_0" slope="0.00"/>
        <vehicle id="1.2" x="152.94" y="105.16" angle="59.89" type="car2" speed="17.99" pos="185.56" lane="143380536#0_1" slope="0.00"/>
        <vehicle id="1.3" x="86.24" y="60.66" angle="55.77" type="car2" speed="15.98" pos="105.38" lane="143380536#0_1" slope="0.00"/>
        <vehicle id="1.4" x="22.18" y="13.10" angle="55.78" type="car2" speed="5.33" pos="25.71" lane="143380536#0_0" slope="0.00"/>
        <vehicle id="1.5" x="24.24" y="18.49" angle="55.77" type="car2" speed="13.02" pos="30.43" lane="143380536#0_1" slope="0.00"/>
        <vehicle id="1.6" x="11.31" y="9.69" angle="55.77" type="car2" speed="9.70" pos="14.80" lane="143380536#0_1" slope="0.00"/>
        <vehicle id="2.0" x="76.03" y="49.72" angle="55.78" type="car2" speed="11.27" pos="90.87" lane="143380536#0_0" slope="0.00"/>
        <vehicle id="2.1" x="129.16" y="89.85" angle="55.77" type="car2" speed="16.83" pos="157.27" lane="143380536#0_1" slope="0.00"/>
        <vehicle id="2.2" x="106.75" y="74.61" angle="55.77" type="car2" speed="16.43" pos="130.18" lane="143380536#0_1" slope="0.00"/>
        <vehicle id="3.0" x="2444.49" y="202.55" angle="352.39" type="car2" speed="19.73" pos="461.57" lane="86113446#1_0" slope="0.00"/>
    </timestep>
    <timestep time="26.00">
        <vehicle id="1.0" x="373.41" y="229.21" angle="59.89" type="car2" speed="19.54" pos="438.52" lane="143380536#0_0" slope="0.00"/>
        <vehicle id="1.1" x="189.28" y="122.42" angle="59.89" type="car2" speed="18.90" pos="225.58" lane="143380536#0_0" slope="0.00"/>
        <vehicle id="1.2" x="169.27" y="114.63" angle="59.89" type="car2" speed="18.86" pos="204.42" lane="143380536#0_1" slope="0.00"/>
        <vehicle id="1.3" x="99.69" y="69.81" angle="55.77" type="car2" speed="16.27" pos="121.65" lane="143380536#0_1" slope="0.00"/>
        <vehicle id="1.4" x="27.27" y="16.56" angle="55.78" type="car2" speed="6.16" pos="31.87" lane="143380536#0_0" slope="0.00"/>
        <vehicle id="1.5" x="35.50" y="26.14" angle="55.77" type="car2" speed="13.61" pos="44.04" lane="143380536#0_1" slope="0.00"/>
        <vehicle id="1.6" x="20.03" y="15.62" angle="55.77" type="car2" speed="10.54" pos="25.34" lane="143380536#0_1" slope="0.00"/>
        <vehicle id="2.0" x="86.10" y="56.57" angle="55.78" type="car2" speed="12.18" pos="103.05" lane="143380536#0_0" slope="0.00"/>
        <vehicle id="2.1" x="143.72" y="99.76" angle="55.77" type="car2" speed="17.61" pos="174.88" lane="143380536#0_1" slope="0.00"/>
        <vehicle id="2.2" x="121.04" y="84.33" angle="55.77" type="car2" speed="17.28" pos="147.46" lane="143380536#0_1" slope="0.00"/>
        <vehicle id="2.3" x="3.29" y="4.23" angle="55.77" type="car2" speed="0.98" pos="5.10" lane="143380536#0_1" slope="0.00"/>
        <vehicle id="3.0" x="2449.00" y="221.24" angle="22.54" type="car2" speed="19.53" pos="481.10" lane="86113446#1_0" slope="0.00"/>
    </timestep>
    <timestep time="27.00">
        <vehicle id="1.0" x="391.54" y="237.58" angle="65.80" type="car2" speed="19.98" pos="458.50" lane="143380536#0_0" slope="0.00"/>
        <vehicle id="1.1" x="206.48" y="132.40" angle="59.89" type="car2" speed="19.89" pos="245.47" lane="143380536#0_0" slope="0.00"/>
        <vehicle id="1.2" x="186.31" y="124.51" angle="59.89" type="car2" speed="19.69" pos="224.11" lane="143380536#0_1" slope="0.00"/>
        <vehicle id="1.3" x="113.64" y="79.30" angle="55.77" type="car2" speed="16.87" pos="138.51" lane="143380536#0_1" slope="0.00"/>
        <vehicle id="1.4" x="33.10" y="20.52" angle="55.78" type="car2" speed="7.06" pos="38.93" lane="143380536#0_0" slope="0.00"/>
        <vehicle id="1.5" x="47.36" y="34.21" angle="55.77" type="car2" speed="14.34" pos="58.38" lane="143380536#0_1" slope="0.00"/>
        <vehicle id="1.6" x="29.33" y="21.95" angle="55.77" type="car2" speed="11.25" pos="36.59" lane="143380536#0_1" slope="0.00"/>
        <vehicle id="2.0" x="96.61" y="63.72" angle="55.78" type="car2" speed="12.72" pos="115.76" lane="143380536#0_0" slope="0.00"/>
        <vehicle id="2.1" x="159.68" y="109.07" angle="59.89" type="car2" speed="18.47" pos="193.35" lane="143380536#0_1" slope="0.00"/>
        <vehicle id="2.2" x="136.04" y="94.53" angle="55.77" type="car2" speed="18.13" pos="165.59" lane="143380536#0_1" slope="0.00"/>
        <vehicle id="2.3" x="4.72" y="5.20" angle="55.77" type="car2" speed="1.73" pos="6.83" lane="143380536#0_1" slope="0.00"/>
        <vehicle id="3.0" x="2461.97" y="235.76" angle="58.15" type="car2" speed="19.76" pos="500.86" lane="86113446#1_0" slope="0.00"/>
    </timestep>
    <timestep time="28.00">
        <vehicle id="1.0" x="409.59" y="245.69" angle="65.80" type="car2" speed="19.81" pos="478.31" lane="143380536#0_0" slope="0.00"/>
        <vehicle id="1.1" x="223.63" y="142.34" angle="59.89" type="car2" speed="19.83" pos="265.30" lane="143380536#0_0" slope="0.00"/>
        <vehicle id="1.2" x="203.55" y="134.51" angle="59.89" type="car2" speed="19.92" pos="244.04" lane="143380536#0_1" slope="0.00"/>
        <vehicle id="1.3" x="128.15" y="89.17" angle="55.77" type="car2" speed="17.54" pos="156.06" lane="143380536#0_1" slope="0.00"/>
        <vehicle id="1.4" x="39.64" y="24.97" angle="55.78" type="car2" speed="7.91" pos="46.84" lane="143380536#0_0" slope="0.00"/>
        <vehicle id="1.5" x="59.95" y="42.77" angle="55.77" type="car2" speed="15.22" pos="73.59" lane="143380536#0_1" slope="0.00"/>
        <vehicle id="1.6" x="39.06" y="28.56" angle="55.77" type="car2" speed="11.75" pos="48.34" lane="143380536#0_1" slope="0.00"/>
        <vehicle id="1.7" x="5.15" y="1.51" angle="55.78" type="car2" speed="7.14" pos="5.10" lane="143380536#0_0" slope="0.00"/>
        <vehicle id="2.0" x="107.58" y="71.18" angle="55.78" type="car2" speed="13.27" pos="129.04" lane="143380536#0_0" slope="0.00"/>
        <vehicle id="2.1" x="176.44" y="118.79" angle="59.89" type="car2" speed="19.36" pos="212.71" lane="143380536#0_1" slope="0.00"/>
        <vehicle id="2.2" x="151.81" y="104.51" angle="59.89" type="car2" speed="18.67" pos="184.25" lane="143380536#0_1" slope="0.00"/>
        <vehicle id="2.3" x="6.60" y="6.48" angle="55.77" type="car2" speed="2.28" pos="9.11" lane="143380536#0_1" slope="0.00"/>
        <vehicle id="3.0" x="2476.07" y="244.13" angle="59.30" type="car2" speed="16.39" pos="517.26" lane="86113446#1_0" slope="0.00"/>
    </timestep>
    <timestep time="29.00">
        <vehicle id="1.0" x="427.41" y="253.70" angle="65.80" type="car2" speed="19.54" pos="497.85" lane="143380536#0_0" slope="0.00"/>
        <vehicle id="1.1" x="240.59" y="152.18" angle="59.89" type="car2" speed="19.61" pos="284.91" lane="143380536#0_0" slope="0.00"/>
        <vehicle id="1.2" x="220.61" y="144.41" angle="59.89" type="car2" speed="19.71" pos="263.75" lane="143380536#0_1" slope="0.00"/>
        <vehicle id="1.3" x="143.42" y="99.55" angle="55.77" type="car2" speed="18.45" pos="174.51" lane="143380536#0_1" slope="0.00"/>
        <vehicle id="1.4" x="46.67" y="29.75" angle="55.78" type="car2" speed="8.51" pos="55.35" lane="143380536#0_0" slope="0.00"/>
        <vehicle id="1.5" x="73.14" y="51.75" angle="55.77" type="car2" speed="15.95" pos="89.55" lane="143380536#0_1" slope="0.00"/>
        <vehicle id="1.6" x="49.26" y="35.50" angle="55.77" type="car2" speed="12.33" pos="60.67" lane="143380536#0_1" slope="0.00"/>
        <vehicle id="1.7" x="11.86" y="6.08" angle="55.78" type="car2" speed="8.13" pos="13.23" lane="143380536#0_0" slope="0.00"/>
        <vehicle id="2.0" x="119.07" y="79.00" angle="55.78" type="car2" speed="13.90" pos="142.94" lane="143380536#0_0" slope="0.00"/>
        <vehicle id="2.1" x="193.54" y="128.71" angle="59.89" type="car2" speed="19.77" pos="232.47" lane="143380536#0_1" slope="0.00"/>
        <vehicle id="2.2" x="170.38" y="111.46" angle="59.89" type="car2" speed="19.47" pos="203.72" lane="143380536#0_0" slope="0.00"/>
        <vehicle id="2.3" x="9.05" y="8.15" angle="55.77" type="car2" speed="2.95" pos="12.06" lane="143380536#0_1" slope="0.00"/>
        <vehicle id="3.0" x="2487.12" y="248.23" angle="75.35" type="car2" speed="11.89" pos="529.15" lane="86113446#1_0" slope="0.00"/>
    </timestep>
    <timestep time="30.00">
        <vehicle id="1.0" x="445.23" y="261.71" angle="65.80" type="car2" speed="19.55" pos="517.40" lane="143380536#0_0" slope="0.00"/>
        <vehicle id="1.1" x="257.47" y="161.97" angle="59.89" type="car2" speed="19.52" pos="304.43" lane="143380536#0_0" slope="0.00"/>
        <vehicle id="1.2" x="237.52" y="154.22" angle="59.89" type="car2" speed="19.55" pos="283.29" lane="143380536#0_1" slope="0.00"/>
        <vehicle id="1.3" x="159.95" y="109.23" angle="59.89" type="car2" speed="19.15" pos="193.65" lane="143380536#0_1" slope="0.00"/>
        <vehicle id="1.4" x="54.40" y="35.01" angle="55.78" type="car2" speed="9.35" pos="64.69" lane="143380536#0_0" slope="0.00"/>
        <vehicle id="1.5" x="87.15" y="61.28" angle="55.77" type="car2" speed="16.94" pos="106.49" lane="143380536#0_1" slope="0.00"/>
        <vehicle id="1.6" x="60.11" y="42.88" angle="55.77" type="car2" speed="13.12" pos="73.79" lane="143380536#0_1" slope="0.00"/>
        <vehicle id="1.7" x="19.00" y="10.93" angle="55.78" type="car2" speed="8.64" pos="21.87" lane="143380536#0_0" slope="0.00"/>
        <vehicle id="1.8" x="3.29" y="4.23" angle="55.77" type="car2" speed="0.16" pos="5.10" lane="143380536#0_1" slope="0.00"/>
        <vehicle id="2.0" x="131.16" y="87.22" angle="55.78" type="car2" speed="14.62" pos="157.56" lane="143380536#0_0" slope="0.00"/>
        <vehicle id="2.1" x="210.51" y="138.55" angle="59.89" type="car2" speed="19.61" pos="252.08" lane="143380536#0_1" slope="0.00"/>
        <vehicle id="2.2" x="187.38" y="121.32" angle="59.89" type="car2" speed="19.65" pos="223.38" lane="143380536#0_0" slope="0.00"/>
        <vehicle id="2.3" x="11.92" y="10.10" angle="55.77" type="car2" speed="3.48" pos="15.53" lane="143380536#0_1" slope="0.00"/>
        <vehicle id="3.0" x="2494.48" y="250.15" angle="75.35" type="car2" speed="7.60" pos="536.75" lane="86113446#1_0" slope="0.00"/>
    </timestep>
    <timestep time="31.00">
        <vehicle id="1.0" x="463.02" y="269.71" angle="65.80" type="car2" speed="19.51" pos="536.90" lane="143380536#0_0" slope="0.00"/>
        <vehicle id="1.1" x="274.39" y="171.78" angle="59.89" type="car2" speed="19.57" pos="324.00" lane="143380536#0_0" slope="0.00"/>
        <vehicle id="1.2" x="254.81" y="164.24" angle="59.89" type="car2" speed="19.98" pos="303.27" lane="143380536#0_1" slope="0.00"/>
        <vehicle id="1.3" x="176.96" y="119.09" angle="59.89" type="car2" speed="19.66" pos="213.31" lane="143380536#0_1" slope="0.00"/>